 Entering Gaussian System, Link 0=g16
 Input=F1O2/HB1_F1O2_frag_M3.gjf
 Output=F1O2/HB1_F1O2_frag_M3.log
 Initial command:
 /work1/soft/gaussian/G16A03SSE4/g16/l1.exe "/home/deepak/gaussian_scratch/Gau-3597395.inp" -scrdir="/home/deepak/gaussian_scratch/"
 Entering Link 1 = /work1/soft/gaussian/G16A03SSE4/g16/l1.exe PID=   3597396.
  
 Copyright (c) 1988,1990,1992,1993,1995,1998,2003,2009,2016,
            Gaussian, Inc.  All Rights Reserved.
  
 This is part of the Gaussian(R) 16 program.  It is based on
 the Gaussian(R) 09 system (copyright 2009, Gaussian, Inc.),
 the Gaussian(R) 03 system (copyright 2003, Gaussian, Inc.),
 the Gaussian(R) 98 system (copyright 1998, Gaussian, Inc.),
 the Gaussian(R) 94 system (copyright 1995, Gaussian, Inc.),
 the Gaussian 92(TM) system (copyright 1992, Gaussian, Inc.),
 the Gaussian 90(TM) system (copyright 1990, Gaussian, Inc.),
 the Gaussian 88(TM) system (copyright 1988, Gaussian, Inc.),
 the Gaussian 86(TM) system (copyright 1986, Carnegie Mellon
 University), and the Gaussian 82(TM) system (copyright 1983,
 Carnegie Mellon University). Gaussian is a federally registered
 trademark of Gaussian, Inc.
  
 This software contains proprietary and confidential information,
 including trade secrets, belonging to Gaussian, Inc.
  
 This software is provided under written license and may be
 used, copied, transmitted, or stored only in accord with that
 written license.
  
 The following legend is applicable only to US Government
 contracts under FAR:
  
                    RESTRICTED RIGHTS LEGEND
  
 Use, reproduction and disclosure by the US Government is
 subject to restrictions as set forth in subparagraphs (a)
 and (c) of the Commercial Computer Software - Restricted
 Rights clause in FAR 52.227-19.
  
 Gaussian, Inc.
 340 Quinnipiac St., Bldg. 40, Wallingford CT 06492
  
  
 ---------------------------------------------------------------
 Warning -- This program may not be used in any manner that
 competes with the business of Gaussian, Inc. or will provide
 assistance to any competitor of Gaussian, Inc.  The licensee
 of this program is prohibited from giving any competitor of
 Gaussian, Inc. access to this program.  By using this program,
 the user acknowledges that Gaussian, Inc. is engaged in the
 business of creating and licensing software in the field of
 computational chemistry and represents and warrants to the
 licensee that it is not a competitor of Gaussian, Inc. and that
 it will not use this program in any manner prohibited above.
 ---------------------------------------------------------------
  

 Cite this work as:
 Gaussian 16, Revision A.03,
 M. J. Frisch, G. W. Trucks, H. B. Schlegel, G. E. Scuseria, 
 M. A. Robb, J. R. Cheeseman, G. Scalmani, V. Barone, 
 G. A. Petersson, H. Nakatsuji, X. Li, M. Caricato, A. V. Marenich, 
 J. Bloino, B. G. Janesko, R. Gomperts, B. Mennucci, H. P. Hratchian, 
 J. V. Ortiz, A. F. Izmaylov, J. L. Sonnenberg, D. Williams-Young, 
 F. Ding, F. Lipparini, F. Egidi, J. Goings, B. Peng, A. Petrone, 
 T. Henderson, D. Ranasinghe, V. G. Zakrzewski, J. Gao, N. Rega, 
 G. Zheng, W. Liang, M. Hada, M. Ehara, K. Toyota, R. Fukuda, 
 J. Hasegawa, M. Ishida, T. Nakajima, Y. Honda, O. Kitao, H. Nakai, 
 T. Vreven, K. Throssell, J. A. Montgomery, Jr., J. E. Peralta, 
 F. Ogliaro, M. J. Bearpark, J. J. Heyd, E. N. Brothers, K. N. Kudin, 
 V. N. Staroverov, T. A. Keith, R. Kobayashi, J. Normand, 
 K. Raghavachari, A. P. Rendell, J. C. Burant, S. S. Iyengar, 
 J. Tomasi, M. Cossi, J. M. Millam, M. Klene, C. Adamo, R. Cammi, 
 J. W. Ochterski, R. L. Martin, K. Morokuma, O. Farkas, 
 J. B. Foresman, and D. J. Fox, Gaussian, Inc., Wallingford CT, 2016.
 
 ******************************************
 Gaussian 16:  ES64L-G16RevA.03 25-Dec-2016
                11-Mar-2026 
 ******************************************
 %chk=F1O2/HB1_F1O2_frag_M3.chk
 %nproc=16
 Will use up to   16 processors via shared memory.
 %mem=16GB
 --------------------------------------
 #P MP2/aug-cc-pVTZ SP nosymm scf=tight
 --------------------------------------
 1/38=1,172=1/1;
 2/12=2,15=1,17=6,18=5,40=1/2;
 3/5=16,6=1,7=10,11=9,25=1,30=1/1,2,3;
 4//1;
 5/5=2,32=2,38=5/2;
 8/10=1/1;
 9/16=-3/6;
 6/7=2,8=2,9=2,10=2/1;
 99/5=1,9=1/99;
 Leave Link    1 at Wed Mar 11 15:53:09 2026, MaxMem=  2147483648 cpu:               0.3 elap:               0.0
 (Enter /work1/soft/gaussian/G16A03SSE4/g16/l101.exe)
 ------------------------------------------------------------
 HB1 primary frag (acceptor side) | removed donor M1=O1-H3-H2
 ------------------------------------------------------------
 Symbolic Z-matrix:
 Charge =  0 Multiplicity = 1
 O                     1.63624   0.06045   0.1037 
 H                     1.10856  -0.75512   0.05301 
 H                     2.37703  -0.08166  -0.4984 
 O                    -0.8529    1.23582  -0.12715 
 H                    -1.14462   1.75669   0.63219 
 H                     0.1227    1.19189  -0.05457 
 
 ITRead=  0  0  0  0  0  0
 MicOpt= -1 -1 -1 -1 -1 -1
 NAtoms=      6 NQM=        6 NQMF=       0 NMMI=      0 NMMIF=      0
                NMic=       0 NMicF=      0.
                    Isotopes and Nuclear Properties:
 (Nuclear quadrupole moments (NQMom) in fm**2, nuclear magnetic moments (NMagM)
  in nuclear magnetons)

  Atom         1           2           3           4           5           6
 IAtWgt=          16           1           1          16           1           1
 AtmWgt=  15.9949146   1.0078250   1.0078250  15.9949146   1.0078250   1.0078250
 NucSpn=           0           1           1           0           1           1
 AtZEff=  -0.0000000  -0.0000000  -0.0000000  -0.0000000  -0.0000000  -0.0000000
 NQMom=    0.0000000   0.0000000   0.0000000   0.0000000   0.0000000   0.0000000
 NMagM=    0.0000000   2.7928460   2.7928460   0.0000000   2.7928460   2.7928460
 AtZNuc=   8.0000000   1.0000000   1.0000000   8.0000000   1.0000000   1.0000000
 Leave Link  101 at Wed Mar 11 15:53:09 2026, MaxMem=  2147483648 cpu:               0.9 elap:               0.1
 (Enter /work1/soft/gaussian/G16A03SSE4/g16/l202.exe)
                          Input orientation:                          
 ---------------------------------------------------------------------
 Center     Atomic      Atomic             Coordinates (Angstroms)
 Number     Number       Type             X           Y           Z
 ---------------------------------------------------------------------
      1          8           0        1.636242    0.060448    0.103696
      2          1           0        1.108561   -0.755119    0.053012
      3          1           0        2.377032   -0.081664   -0.498399
      4          8           0       -0.852903    1.235815   -0.127148
      5          1           0       -1.144618    1.756688    0.632186
      6          1           0        0.122702    1.191890   -0.054566
 ---------------------------------------------------------------------
                    Distance matrix (angstroms):
                    1          2          3          4          5
     1  O    0.000000
     2  H    0.972710   0.000000
     3  H    0.965134   1.538380   0.000000
     4  O    2.762358   2.800646   3.507999   0.000000
     5  H    3.299957   3.423658   4.130349   0.965916   0.000000
     6  H    1.896315   2.185025   2.626962   0.979287   1.548136
                    6
     6  H    0.000000
 Symmetry turned off by external request.
 Stoichiometry    H4O2
 Framework group  C1[X(H4O2)]
 Deg. of freedom    12
 Full point group                 C1      NOp   1
 Rotational constants (GHZ):         234.1132231           7.0771952           7.0438459
 Leave Link  202 at Wed Mar 11 15:53:10 2026, MaxMem=  2147483648 cpu:               0.0 elap:               0.0
 (Enter /work1/soft/gaussian/G16A03SSE4/g16/l301.exe)
 Standard basis: Aug-CC-pVTZ (5D, 7F)
 Ernie: Thresh=  0.10000D-02 Tol=  0.10000D-05 Strict=F.
 Ernie:  6 primitive shells out of 104 were deleted.
   184 basis functions,   252 primitive gaussians,   210 cartesian basis functions
    10 alpha electrons       10 beta electrons
       nuclear repulsion energy        37.3503991019 Hartrees.
 IExCor=    0 DFT=F Ex=HF Corr=None ExCW=0 ScaHFX=  1.000000
 ScaDFX=  1.000000  1.000000  1.000000  1.000000 ScalE2=  1.000000  1.000000
 IRadAn=      5 IRanWt=     -1 IRanGd=            0 ICorTp=0 IEmpDi=  4
 NAtoms=    6 NActive=    6 NUniq=    6 SFac= 1.00D+00 NAtFMM=   60 NAOKFM=F Big=F
 Integral buffers will be    131072 words long.
 Raffenetti 1 integral format.
 Two-electron integral symmetry is turned off.
 Leave Link  301 at Wed Mar 11 15:53:10 2026, MaxMem=  2147483648 cpu:               0.6 elap:               0.1
 (Enter /work1/soft/gaussian/G16A03SSE4/g16/l302.exe)
 NPDir=0 NMtPBC=     1 NCelOv=     1 NCel=       1 NClECP=     1 NCelD=      1
         NCelK=      1 NCelE2=     1 NClLst=     1 CellRange=     0.0.
 One-electron integrals computed using PRISM.
 NBasis=   184 RedAO= T EigKep=  2.35D-04  NBF=   184
 NBsUse=   184 1.00D-06 EigRej= -1.00D+00 NBFU=   184
 Leave Link  302 at Wed Mar 11 15:53:10 2026, MaxMem=  2147483648 cpu:               1.7 elap:               0.1
 (Enter /work1/soft/gaussian/G16A03SSE4/g16/l303.exe)
 DipDrv:  MaxL=1.
 Leave Link  303 at Wed Mar 11 15:53:10 2026, MaxMem=  2147483648 cpu:               0.4 elap:               0.1
 (Enter /work1/soft/gaussian/G16A03SSE4/g16/l401.exe)
 ExpMin= 2.53D-02 ExpMax= 1.53D+04 ExpMxC= 5.22D+02 IAcc=3 IRadAn=         5 AccDes= 0.00D+00
 Harris functional with IExCor=  205 and IRadAn=       5 diagonalized for initial guess.
 HarFok:  IExCor=  205 AccDes= 0.00D+00 IRadAn=         5 IDoV= 1 UseB2=F ITyADJ=14
 ICtDFT=  3500011 ScaDFX=  1.000000  1.000000  1.000000  1.000000
 FoFCou: FMM=F IPFlag=           0 FMFlag=      100000 FMFlg1=           0
         NFxFlg=           0 DoJE=T BraDBF=F KetDBF=T FulRan=T
         wScrn=  0.000000 ICntrl=       500 IOpCl=  0 I1Cent=   200000004 NGrid=           0
         NMat0=    1 NMatS0=      1 NMatT0=    0 NMatD0=    1 NMtDS0=    0 NMtDT0=    0
 Symmetry not used in FoFCou.
 Harris En= -152.310591156949    
 JPrj=0 DoOrth=F DoCkMO=F.
 Leave Link  401 at Wed Mar 11 15:53:10 2026, MaxMem=  2147483648 cpu:               3.7 elap:               0.3
 (Enter /work1/soft/gaussian/G16A03SSE4/g16/l502.exe)
 Keep R1 ints in memory in canonical form, NReq=152771482.
 FoFCou: FMM=F IPFlag=           0 FMFlag=           0 FMFlg1=           0
         NFxFlg=           0 DoJE=F BraDBF=F KetDBF=F FulRan=T
         wScrn=  0.000000 ICntrl=       600 IOpCl=  0 I1Cent=           0 NGrid=           0
         NMat0=    1 NMatS0=  17020 NMatT0=    0 NMatD0=    1 NMtDS0=    0 NMtDT0=    0
 Symmetry not used in FoFCou.
 Two-electron integral symmetry not used.
 Closed shell SCF:
 Using DIIS extrapolation, IDIIS=  1040.
 NGot=  2147483648 LenX=  2002541994 LenY=  2002497453
 Requested convergence on RMS density matrix=1.00D-08 within 128 cycles.
 Requested convergence on MAX density matrix=1.00D-06.
 Requested convergence on             energy=1.00D-06.
 No special actions if energy rises.

 Cycle   1  Pass 1  IDiag  1:
 E= -151.958852951821    
 DIIS: error= 3.39D-02 at cycle   1 NSaved=   1.
 NSaved= 1 IEnMin= 1 EnMin= -151.958852951821     IErMin= 1 ErrMin= 3.39D-02
 ErrMax= 3.39D-02  0.00D+00 EMaxC= 1.00D-01 BMatC= 3.89D-01 BMatP= 3.89D-01
 IDIUse=3 WtCom= 6.61D-01 WtEn= 3.39D-01
 Coeff-Com:  0.100D+01
 Coeff-En:   0.100D+01
 Coeff:      0.100D+01
 Gap=     0.434 Goal=   None    Shift=    0.000
 GapD=    0.434 DampG=2.000 DampE=0.500 DampFc=1.0000 IDamp=-1.
 RMSDP=1.54D-03 MaxDP=4.82D-02              OVMax= 1.23D-01

 Cycle   2  Pass 1  IDiag  1:
 E= -152.059380657192     Delta-E=       -0.100527705371 Rises=F Damp=F
 DIIS: error= 2.16D-02 at cycle   2 NSaved=   2.
 NSaved= 2 IEnMin= 2 EnMin= -152.059380657192     IErMin= 2 ErrMin= 2.16D-02
 ErrMax= 2.16D-02  0.00D+00 EMaxC= 1.00D-01 BMatC= 1.04D-01 BMatP= 3.89D-01
 IDIUse=3 WtCom= 7.84D-01 WtEn= 2.16D-01
 Coeff-Com:  0.309D+00 0.691D+00
 Coeff-En:   0.171D+00 0.829D+00
 Coeff:      0.279D+00 0.721D+00
 Gap=     0.532 Goal=   None    Shift=    0.000
 RMSDP=9.07D-04 MaxDP=3.49D-02 DE=-1.01D-01 OVMax= 6.43D-02

 Cycle   3  Pass 1  IDiag  1:
 E= -152.120428538219     Delta-E=       -0.061047881027 Rises=F Damp=F
 DIIS: error= 4.13D-03 at cycle   3 NSaved=   3.
 NSaved= 3 IEnMin= 3 EnMin= -152.120428538219     IErMin= 3 ErrMin= 4.13D-03
 ErrMax= 4.13D-03  0.00D+00 EMaxC= 1.00D-01 BMatC= 4.38D-03 BMatP= 1.04D-01
 IDIUse=3 WtCom= 9.59D-01 WtEn= 4.13D-02
 Coeff-Com: -0.299D-01 0.138D+00 0.892D+00
 Coeff-En:   0.000D+00 0.000D+00 0.100D+01
 Coeff:     -0.287D-01 0.132D+00 0.897D+00
 Gap=     0.505 Goal=   None    Shift=    0.000
 RMSDP=1.43D-04 MaxDP=3.95D-03 DE=-6.10D-02 OVMax= 1.08D-02

 Cycle   4  Pass 1  IDiag  1:
 E= -152.123177396585     Delta-E=       -0.002748858366 Rises=F Damp=F
 DIIS: error= 3.23D-04 at cycle   4 NSaved=   4.
 NSaved= 4 IEnMin= 4 EnMin= -152.123177396585     IErMin= 4 ErrMin= 3.23D-04
 ErrMax= 3.23D-04  0.00D+00 EMaxC= 1.00D-01 BMatC= 2.05D-05 BMatP= 4.38D-03
 IDIUse=3 WtCom= 9.97D-01 WtEn= 3.23D-03
 Coeff-Com:  0.620D-02-0.445D-01-0.245D+00 0.128D+01
 Coeff-En:   0.000D+00 0.000D+00 0.000D+00 0.100D+01
 Coeff:      0.618D-02-0.444D-01-0.245D+00 0.128D+01
 Gap=     0.507 Goal=   None    Shift=    0.000
 RMSDP=3.01D-05 MaxDP=1.12D-03 DE=-2.75D-03 OVMax= 2.33D-03

 Cycle   5  Pass 1  IDiag  1:
 E= -152.123221931843     Delta-E=       -0.000044535257 Rises=F Damp=F
 DIIS: error= 1.41D-04 at cycle   5 NSaved=   5.
 NSaved= 5 IEnMin= 5 EnMin= -152.123221931843     IErMin= 5 ErrMin= 1.41D-04
 ErrMax= 1.41D-04  0.00D+00 EMaxC= 1.00D-01 BMatC= 2.77D-06 BMatP= 2.05D-05
 IDIUse=3 WtCom= 9.99D-01 WtEn= 1.41D-03
 Coeff-Com:  0.306D-02-0.176D-01-0.990D-01 0.225D+00 0.888D+00
 Coeff-En:   0.000D+00 0.000D+00 0.000D+00 0.000D+00 0.100D+01
 Coeff:      0.306D-02-0.175D-01-0.989D-01 0.225D+00 0.888D+00
 Gap=     0.507 Goal=   None    Shift=    0.000
 RMSDP=7.68D-06 MaxDP=3.16D-04 DE=-4.45D-05 OVMax= 8.53D-04

 Cycle   6  Pass 1  IDiag  1:
 E= -152.123225892777     Delta-E=       -0.000003960934 Rises=F Damp=F
 DIIS: error= 5.43D-05 at cycle   6 NSaved=   6.
 NSaved= 6 IEnMin= 6 EnMin= -152.123225892777     IErMin= 6 ErrMin= 5.43D-05
 ErrMax= 5.43D-05  0.00D+00 EMaxC= 1.00D-01 BMatC= 3.74D-07 BMatP= 2.77D-06
 IDIUse=1 WtCom= 1.00D+00 WtEn= 0.00D+00
 Coeff-Com: -0.343D-03 0.320D-02 0.197D-01-0.160D+00 0.161D+00 0.977D+00
 Coeff:     -0.343D-03 0.320D-02 0.197D-01-0.160D+00 0.161D+00 0.977D+00
 Gap=     0.507 Goal=   None    Shift=    0.000
 RMSDP=3.38D-06 MaxDP=1.24D-04 DE=-3.96D-06 OVMax= 3.29D-04

 Cycle   7  Pass 1  IDiag  1:
 E= -152.123226494710     Delta-E=       -0.000000601933 Rises=F Damp=F
 DIIS: error= 6.82D-06 at cycle   7 NSaved=   7.
 NSaved= 7 IEnMin= 7 EnMin= -152.123226494710     IErMin= 7 ErrMin= 6.82D-06
 ErrMax= 6.82D-06  0.00D+00 EMaxC= 1.00D-01 BMatC= 1.10D-08 BMatP= 3.74D-07
 IDIUse=1 WtCom= 1.00D+00 WtEn= 0.00D+00
 Coeff-Com: -0.855D-04 0.309D-03 0.729D-03 0.194D-01-0.845D-01-0.188D+00
 Coeff-Com:  0.125D+01
 Coeff:     -0.855D-04 0.309D-03 0.729D-03 0.194D-01-0.845D-01-0.188D+00
 Coeff:      0.125D+01
 Gap=     0.507 Goal=   None    Shift=    0.000
 RMSDP=8.09D-07 MaxDP=2.92D-05 DE=-6.02D-07 OVMax= 7.22D-05

 Cycle   8  Pass 1  IDiag  1:
 E= -152.123226522232     Delta-E=       -0.000000027522 Rises=F Damp=F
 DIIS: error= 1.55D-06 at cycle   8 NSaved=   8.
 NSaved= 8 IEnMin= 8 EnMin= -152.123226522232     IErMin= 8 ErrMin= 1.55D-06
 ErrMax= 1.55D-06  0.00D+00 EMaxC= 1.00D-01 BMatC= 4.25D-10 BMatP= 1.10D-08
 IDIUse=1 WtCom= 1.00D+00 WtEn= 0.00D+00
 Coeff-Com:  0.312D-04-0.205D-03-0.111D-02 0.465D-02 0.822D-02-0.941D-02
 Coeff-Com: -0.217D+00 0.121D+01
 Coeff:      0.312D-04-0.205D-03-0.111D-02 0.465D-02 0.822D-02-0.941D-02
 Coeff:     -0.217D+00 0.121D+01
 Gap=     0.507 Goal=   None    Shift=    0.000
 RMSDP=1.37D-07 MaxDP=2.53D-06 DE=-2.75D-08 OVMax= 1.22D-05

 Cycle   9  Pass 1  IDiag  1:
 E= -152.123226523212     Delta-E=       -0.000000000981 Rises=F Damp=F
 DIIS: error= 4.18D-07 at cycle   9 NSaved=   9.
 NSaved= 9 IEnMin= 9 EnMin= -152.123226523212     IErMin= 9 ErrMin= 4.18D-07
 ErrMax= 4.18D-07  0.00D+00 EMaxC= 1.00D-01 BMatC= 2.15D-11 BMatP= 4.25D-10
 IDIUse=1 WtCom= 1.00D+00 WtEn= 0.00D+00
 Coeff-Com:  0.639D-06 0.111D-04 0.141D-03-0.202D-02 0.384D-02 0.127D-01
 Coeff-Com: -0.405D-01-0.200D+00 0.123D+01
 Coeff:      0.639D-06 0.111D-04 0.141D-03-0.202D-02 0.384D-02 0.127D-01
 Coeff:     -0.405D-01-0.200D+00 0.123D+01
 Gap=     0.507 Goal=   None    Shift=    0.000
 RMSDP=3.74D-08 MaxDP=8.94D-07 DE=-9.81D-10 OVMax= 3.36D-06

 Cycle  10  Pass 1  IDiag  1:
 E= -152.123226523265     Delta-E=       -0.000000000052 Rises=F Damp=F
 DIIS: error= 7.02D-08 at cycle  10 NSaved=  10.
 NSaved=10 IEnMin=10 EnMin= -152.123226523265     IErMin=10 ErrMin= 7.02D-08
 ErrMax= 7.02D-08  0.00D+00 EMaxC= 1.00D-01 BMatC= 5.25D-13 BMatP= 2.15D-11
 IDIUse=1 WtCom= 1.00D+00 WtEn= 0.00D+00
 Coeff-Com: -0.778D-06 0.303D-05 0.232D-05 0.194D-03-0.696D-03-0.152D-02
 Coeff-Com:  0.977D-02 0.107D-01-0.227D+00 0.121D+01
 Coeff:     -0.778D-06 0.303D-05 0.232D-05 0.194D-03-0.696D-03-0.152D-02
 Coeff:      0.977D-02 0.107D-01-0.227D+00 0.121D+01
 Gap=     0.507 Goal=   None    Shift=    0.000
 RMSDP=7.13D-09 MaxDP=2.00D-07 DE=-5.23D-11 OVMax= 4.63D-07

 SCF Done:  E(RHF) =  -152.123226523     A.U. after   10 cycles
            NFock= 10  Conv=0.71D-08     -V/T= 2.0018
 KE= 1.518525005452D+02 PE=-4.359593485804D+02 EE= 9.463322241014D+01
 Leave Link  502 at Wed Mar 11 15:53:13 2026, MaxMem=  2147483648 cpu:              19.1 elap:               2.9
 (Enter /work1/soft/gaussian/G16A03SSE4/g16/l801.exe)
 ExpMin= 2.53D-02 ExpMax= 1.53D+04 ExpMxC= 5.22D+02 IAcc=3 IRadAn=         5 AccDes= 0.00D+00
 HarFok:  IExCor=  205 AccDes= 0.00D+00 IRadAn=         5 IDoV=-2 UseB2=F ITyADJ=14
 ICtDFT= 12500011 ScaDFX=  1.000000  1.000000  1.000000  1.000000
 Largest valence mixing into a core orbital is  1.11D-04
 Largest core mixing into a valence orbital is  1.77D-05
 Range of M.O.s used for correlation:     3   184
 NBasis=   184 NAE=    10 NBE=    10 NFC=     2 NFV=     0
 NROrb=    182 NOA=     8 NOB=     8 NVA=   174 NVB=   174

 **** Warning!!: The largest alpha MO coefficient is  0.15487137D+02

 Leave Link  801 at Wed Mar 11 15:53:13 2026, MaxMem=  2147483648 cpu:               0.9 elap:               0.1
 (Enter /work1/soft/gaussian/G16A03SSE4/g16/l906.exe)
 FulOut=F Deriv=F AODrv=F NAtomX=     6
   MMem=         401  MDisk=           8 MDiskD=           8
  W3Min=      292320 MinDsk=      667163 NBas6D=         210
 NBas2D=       22605    NTT=       22155    LW2=     2000000
    MDV=  2147301832 MDiskM=       51078 NBas2p=       22485
 Fully in-core method, ICMem=   518622345.
 IMap=   1   2   3   4   5   6   7   8
 JobTyp=1 Pass  1 fully in-core, NPsUse= 16.
 Compute canonical integrals.
 FoFCou: FMM=F IPFlag=           0 FMFlag=           0 FMFlg1=           0
         NFxFlg=           0 DoJE=F BraDBF=F KetDBF=F FulRan=T
         wScrn=  0.000000 ICntrl=       600 IOpCl=  1 I1Cent=           0 NGrid=           0
         NMat0=    1 NMatS0=  22605 NMatT0=    0 NMatD0=    1 NMtDS0=    0 NMtDT0=    0
 Symmetry not used in FoFCou.
 Spin components of T(2) and E(2):
     alpha-alpha T2 =       0.1662674683D-01 E2=     -0.6619321407D-01
     alpha-beta  T2 =       0.9544353476D-01 E2=     -0.4093487082D+00
     beta-beta   T2 =       0.1662674683D-01 E2=     -0.6619321407D-01
 The integrals were generated   1 times.
 ANorm=    0.1062401538D+01
 E2 =    -0.5417351363D+00 EUMP2 =    -0.15266496165955D+03
 Leave Link  906 at Wed Mar 11 15:53:16 2026, MaxMem=  2147483648 cpu:              47.2 elap:               3.0
 (Enter /work1/soft/gaussian/G16A03SSE4/g16/l601.exe)
 Copying SCF densities to generalized density rwf, IOpCl= 0 IROHF=0.

 **********************************************************************

            Population analysis using the SCF density.

 **********************************************************************

 Alpha  occ. eigenvalues --  -20.58872 -20.53949  -1.37134  -1.31871  -0.73702
 Alpha  occ. eigenvalues --   -0.69114  -0.60818  -0.55513  -0.52790  -0.48257
 Alpha virt. eigenvalues --    0.02484   0.04442   0.04959   0.07364   0.12218
 Alpha virt. eigenvalues --    0.14310   0.16496   0.17173   0.17759   0.18735
 Alpha virt. eigenvalues --    0.21982   0.22719   0.23722   0.24694   0.26046
 Alpha virt. eigenvalues --    0.27067   0.30871   0.31810   0.35626   0.37590
 Alpha virt. eigenvalues --    0.38380   0.41279   0.42220   0.44141   0.45321
 Alpha virt. eigenvalues --    0.45654   0.49000   0.54087   0.59775   0.63282
 Alpha virt. eigenvalues --    0.66249   0.68706   0.71258   0.72745   0.74657
 Alpha virt. eigenvalues --    0.75790   0.76874   0.79395   0.84676   0.85884
 Alpha virt. eigenvalues --    0.88054   0.88714   0.91579   0.93666   0.94198
 Alpha virt. eigenvalues --    0.95341   0.96740   0.97438   0.98521   1.02047
 Alpha virt. eigenvalues --    1.03126   1.03749   1.05440   1.08917   1.09892
 Alpha virt. eigenvalues --    1.13412   1.15553   1.16793   1.18680   1.20947
 Alpha virt. eigenvalues --    1.22399   1.25336   1.32679   1.33475   1.37927
 Alpha virt. eigenvalues --    1.43458   1.46233   1.48061   1.55983   1.57928
 Alpha virt. eigenvalues --    1.61889   1.65824   1.69882   1.74341   1.81228
 Alpha virt. eigenvalues --    1.87590   1.92150   1.99512   2.02862   2.07102
 Alpha virt. eigenvalues --    2.14682   2.25140   2.30099   2.31891   2.37182
 Alpha virt. eigenvalues --    2.40035   2.43454   2.44311   2.46597   2.47252
 Alpha virt. eigenvalues --    2.48483   2.51792   2.55990   2.60967   2.65932
 Alpha virt. eigenvalues --    2.67850   2.70517   2.75917   2.79342   2.80270
 Alpha virt. eigenvalues --    2.85909   2.88723   2.92070   2.92219   2.96936
 Alpha virt. eigenvalues --    3.19249   3.74051   3.76455   3.81400   3.99109
 Alpha virt. eigenvalues --    4.06507   4.11181   4.17411   4.21432   4.22740
 Alpha virt. eigenvalues --    4.25280   4.28659   4.31954   4.37680   4.38611
 Alpha virt. eigenvalues --    4.41805   4.44450   4.46556   4.47286   4.52412
 Alpha virt. eigenvalues --    4.61862   4.69673   4.70342   4.75447   4.80227
 Alpha virt. eigenvalues --    4.89283   4.96298   5.13175   5.14535   5.17303
 Alpha virt. eigenvalues --    5.24519   5.29500   5.30526   5.35001   5.40060
 Alpha virt. eigenvalues --    5.55319   5.56930   5.71355   5.76152   6.22112
 Alpha virt. eigenvalues --    6.29241   6.55480   6.58498   6.78521   6.80200
 Alpha virt. eigenvalues --    6.90200   6.94208   7.13855   7.16657   7.27984
 Alpha virt. eigenvalues --    7.28726   7.29847   7.32741   7.34402   7.36283
 Alpha virt. eigenvalues --    7.37084   7.39014   7.49558   7.51304   7.62574
 Alpha virt. eigenvalues --    7.76033   7.88730   7.91006   8.02368   8.11465
 Alpha virt. eigenvalues --    8.80404   8.82761  15.76015  16.07512
          Condensed to atoms (all electrons):
               1          2          3          4          5          6
     1  O    7.979514   0.270263   0.262294  -0.025095   0.001880  -0.030387
     2  H    0.270263   0.462195   0.016864   0.004351  -0.000379   0.000242
     3  H    0.262294   0.016864   0.509715   0.001805  -0.000718  -0.002853
     4  O   -0.025095   0.004351   0.001805   8.025903   0.270029   0.229863
     5  H    0.001880  -0.000379  -0.000718   0.270029   0.485455   0.044142
     6  H   -0.030387   0.000242  -0.002853   0.229863   0.044142   0.452618
 Mulliken charges:
               1
     1  O   -0.458469
     2  H    0.246465
     3  H    0.212894
     4  O   -0.506855
     5  H    0.199591
     6  H    0.306375
 Sum of Mulliken charges =  -0.00000
 Mulliken charges with hydrogens summed into heavy atoms:
               1
     1  O    0.000889
     4  O   -0.000889
 Electronic spatial extent (au):  <R**2>=            217.4577
 Charge=             -0.0000 electrons
 Dipole moment (field-independent basis, Debye):
    X=              1.9521    Y=             -1.0617    Z=              0.2877  Tot=              2.2407
 Quadrupole moment (field-independent basis, Debye-Ang):
   XX=            -10.7052   YY=            -10.9421   ZZ=            -13.1872
   XY=             -1.3652   XZ=             -4.8626   YZ=              2.7434
 Traceless Quadrupole moment (field-independent basis, Debye-Ang):
   XX=              0.9063   YY=              0.6694   ZZ=             -1.5757
   XY=             -1.3652   XZ=             -4.8626   YZ=              2.7434
 Octapole moment (field-independent basis, Debye-Ang**2):
  XXX=             -5.1703  YYY=            -23.5983  ZZZ=              0.4775  XYY=             -5.8609
  XXY=             -9.3389  XXZ=             -5.1549  XZZ=             -5.7366  YZZ=             -7.8488
  YYZ=              5.0847  XYZ=             -3.1409
 Hexadecapole moment (field-independent basis, Debye-Ang**3):
 XXXX=           -112.7858 YYYY=            -73.6936 ZZZZ=            -14.2536 XXXY=             16.4522
 XXXZ=            -22.9734 YYYX=             16.4077 YYYZ=             10.3284 ZZZX=             -4.4121
 ZZZY=              2.6879 XXYY=            -34.3462 XXZZ=            -25.4842 YYZZ=            -14.1179
 XXYZ=              4.7976 YYXZ=             -6.7372 ZZXY=              5.7628
 N-N= 3.735039910186D+01 E-N=-4.359593479241D+02  KE= 1.518525005452D+02
 Leave Link  601 at Wed Mar 11 15:53:16 2026, MaxMem=  2147483648 cpu:               0.4 elap:               0.0
 (Enter /work1/soft/gaussian/G16A03SSE4/g16/l9999.exe)
 1\1\GINC-XENA09\SP\RMP2-FC\Aug-CC-pVTZ\H4O2\DEEPAK\11-Mar-2026\0\\#P M
 P2/aug-cc-pVTZ SP nosymm scf=tight\\HB1 primary frag (acceptor side) |
  removed donor M1=O1-H3-H2\\0,1\O,0,1.636242,0.060448,0.103696\H,0,1.1
 08561,-0.755119,0.053012\H,0,2.377032,-0.081664,-0.498399\O,0,-0.85290
 3,1.235815,-0.127148\H,0,-1.144618,1.756688,0.632186\H,0,0.122702,1.19
 189,-0.054566\\Version=ES64L-G16RevA.03\HF=-152.1232265\MP2=-152.66496
 17\RMSD=7.130e-09\PG=C01 [X(H4O2)]\\@


 Time has a wonderful way of weeding out the trivial.
                                -- Richard Ben Sapir
 Job cpu time:       0 days  0 hours  1 minutes 16.0 seconds.
 Elapsed time:       0 days  0 hours  0 minutes  6.7 seconds.
 File lengths (MBytes):  RWF=     28 Int=      0 D2E=      0 Chk=      4 Scr=      2
 Normal termination of Gaussian 16 at Wed Mar 11 15:53:16 2026.
