 Entering Gaussian System, Link 0=g16
 Input=F1O2/HB3_F1O2_frag_M2.gjf
 Output=F1O2/HB3_F1O2_frag_M2.log
 Initial command:
 /work1/soft/gaussian/G16A03SSE4/g16/l1.exe "/home/deepak/gaussian_scratch/Gau-3598852.inp" -scrdir="/home/deepak/gaussian_scratch/"
 Entering Link 1 = /work1/soft/gaussian/G16A03SSE4/g16/l1.exe PID=   3598853.
  
 Copyright (c) 1988,1990,1992,1993,1995,1998,2003,2009,2016,
            Gaussian, Inc.  All Rights Reserved.
  
 This is part of the Gaussian(R) 16 program.  It is based on
 the Gaussian(R) 09 system (copyright 2009, Gaussian, Inc.),
 the Gaussian(R) 03 system (copyright 2003, Gaussian, Inc.),
 the Gaussian(R) 98 system (copyright 1998, Gaussian, Inc.),
 the Gaussian(R) 94 system (copyright 1995, Gaussian, Inc.),
 the Gaussian 92(TM) system (copyright 1992, Gaussian, Inc.),
 the Gaussian 90(TM) system (copyright 1990, Gaussian, Inc.),
 the Gaussian 88(TM) system (copyright 1988, Gaussian, Inc.),
 the Gaussian 86(TM) system (copyright 1986, Carnegie Mellon
 University), and the Gaussian 82(TM) system (copyright 1983,
 Carnegie Mellon University). Gaussian is a federally registered
 trademark of Gaussian, Inc.
  
 This software contains proprietary and confidential information,
 including trade secrets, belonging to Gaussian, Inc.
  
 This software is provided under written license and may be
 used, copied, transmitted, or stored only in accord with that
 written license.
  
 The following legend is applicable only to US Government
 contracts under FAR:
  
                    RESTRICTED RIGHTS LEGEND
  
 Use, reproduction and disclosure by the US Government is
 subject to restrictions as set forth in subparagraphs (a)
 and (c) of the Commercial Computer Software - Restricted
 Rights clause in FAR 52.227-19.
  
 Gaussian, Inc.
 340 Quinnipiac St., Bldg. 40, Wallingford CT 06492
  
  
 ---------------------------------------------------------------
 Warning -- This program may not be used in any manner that
 competes with the business of Gaussian, Inc. or will provide
 assistance to any competitor of Gaussian, Inc.  The licensee
 of this program is prohibited from giving any competitor of
 Gaussian, Inc. access to this program.  By using this program,
 the user acknowledges that Gaussian, Inc. is engaged in the
 business of creating and licensing software in the field of
 computational chemistry and represents and warrants to the
 licensee that it is not a competitor of Gaussian, Inc. and that
 it will not use this program in any manner prohibited above.
 ---------------------------------------------------------------
  

 Cite this work as:
 Gaussian 16, Revision A.03,
 M. J. Frisch, G. W. Trucks, H. B. Schlegel, G. E. Scuseria, 
 M. A. Robb, J. R. Cheeseman, G. Scalmani, V. Barone, 
 G. A. Petersson, H. Nakatsuji, X. Li, M. Caricato, A. V. Marenich, 
 J. Bloino, B. G. Janesko, R. Gomperts, B. Mennucci, H. P. Hratchian, 
 J. V. Ortiz, A. F. Izmaylov, J. L. Sonnenberg, D. Williams-Young, 
 F. Ding, F. Lipparini, F. Egidi, J. Goings, B. Peng, A. Petrone, 
 T. Henderson, D. Ranasinghe, V. G. Zakrzewski, J. Gao, N. Rega, 
 G. Zheng, W. Liang, M. Hada, M. Ehara, K. Toyota, R. Fukuda, 
 J. Hasegawa, M. Ishida, T. Nakajima, Y. Honda, O. Kitao, H. Nakai, 
 T. Vreven, K. Throssell, J. A. Montgomery, Jr., J. E. Peralta, 
 F. Ogliaro, M. J. Bearpark, J. J. Heyd, E. N. Brothers, K. N. Kudin, 
 V. N. Staroverov, T. A. Keith, R. Kobayashi, J. Normand, 
 K. Raghavachari, A. P. Rendell, J. C. Burant, S. S. Iyengar, 
 J. Tomasi, M. Cossi, J. M. Millam, M. Klene, C. Adamo, R. Cammi, 
 J. W. Ochterski, R. L. Martin, K. Morokuma, O. Farkas, 
 J. B. Foresman, and D. J. Fox, Gaussian, Inc., Wallingford CT, 2016.
 
 ******************************************
 Gaussian 16:  ES64L-G16RevA.03 25-Dec-2016
                11-Mar-2026 
 ******************************************
 %chk=F1O2/HB3_F1O2_frag_M2.chk
 %nproc=16
 Will use up to   16 processors via shared memory.
 %mem=16GB
 --------------------------------------
 #P MP2/aug-cc-pVTZ SP nosymm scf=tight
 --------------------------------------
 1/38=1,172=1/1;
 2/12=2,15=1,17=6,18=5,40=1/2;
 3/5=16,6=1,7=10,11=9,25=1,30=1/1,2,3;
 4//1;
 5/5=2,32=2,38=5/2;
 8/10=1/1;
 9/16=-3/6;
 6/7=2,8=2,9=2,10=2/1;
 99/5=1,9=1/99;
 Leave Link    1 at Wed Mar 11 15:53:50 2026, MaxMem=  2147483648 cpu:               0.3 elap:               0.0
 (Enter /work1/soft/gaussian/G16A03SSE4/g16/l101.exe)
 ---------------------------------------------------------
 HB3 primary frag (acceptor side) | removed donor M3=F7-H8
 ---------------------------------------------------------
 Symbolic Z-matrix:
 Charge =  0 Multiplicity = 1
 O                     1.63624   0.06045   0.1037 
 H                     1.10856  -0.75512   0.05301 
 H                     2.37703  -0.08166  -0.4984 
 F                    -0.86723  -1.33084   0.007 
 H                    -1.04222  -0.39099  -0.03624 
 
 ITRead=  0  0  0  0  0
 MicOpt= -1 -1 -1 -1 -1
 NAtoms=      5 NQM=        5 NQMF=       0 NMMI=      0 NMMIF=      0
                NMic=       0 NMicF=      0.
                    Isotopes and Nuclear Properties:
 (Nuclear quadrupole moments (NQMom) in fm**2, nuclear magnetic moments (NMagM)
  in nuclear magnetons)

  Atom         1           2           3           4           5
 IAtWgt=          16           1           1          19           1
 AtmWgt=  15.9949146   1.0078250   1.0078250  18.9984033   1.0078250
 NucSpn=           0           1           1           1           1
 AtZEff=  -0.0000000  -0.0000000  -0.0000000  -0.0000000  -0.0000000
 NQMom=    0.0000000   0.0000000   0.0000000   0.0000000   0.0000000
 NMagM=    0.0000000   2.7928460   2.7928460   2.6288670   2.7928460
 AtZNuc=   8.0000000   1.0000000   1.0000000   9.0000000   1.0000000
 Leave Link  101 at Wed Mar 11 15:53:50 2026, MaxMem=  2147483648 cpu:               0.9 elap:               0.1
 (Enter /work1/soft/gaussian/G16A03SSE4/g16/l202.exe)
                          Input orientation:                          
 ---------------------------------------------------------------------
 Center     Atomic      Atomic             Coordinates (Angstroms)
 Number     Number       Type             X           Y           Z
 ---------------------------------------------------------------------
      1          8           0        1.636242    0.060448    0.103696
      2          1           0        1.108561   -0.755119    0.053012
      3          1           0        2.377032   -0.081664   -0.498399
      4          9           0       -0.867229   -1.330843    0.007003
      5          1           0       -1.042224   -0.390985   -0.036243
 ---------------------------------------------------------------------
                    Distance matrix (angstroms):
                    1          2          3          4          5
     1  O    0.000000
     2  H    0.972710   0.000000
     3  H    0.965134   1.538380   0.000000
     4  F    2.865730   2.058475   3.512991   0.000000
     5  H    2.719845   2.183217   3.464185   0.956988   0.000000
 Symmetry turned off by external request.
 Stoichiometry    FH3O
 Framework group  C1[X(FH3O)]
 Deg. of freedom     9
 Full point group                 C1      NOp   1
 Rotational constants (GHZ):         322.8441680           6.5096132           6.4300346
 Leave Link  202 at Wed Mar 11 15:53:50 2026, MaxMem=  2147483648 cpu:               0.1 elap:               0.0
 (Enter /work1/soft/gaussian/G16A03SSE4/g16/l301.exe)
 Standard basis: Aug-CC-pVTZ (5D, 7F)
 Ernie: Thresh=  0.10000D-02 Tol=  0.10000D-05 Strict=F.
 Ernie:  6 primitive shells out of 93 were deleted.
   161 basis functions,   225 primitive gaussians,   185 cartesian basis functions
    10 alpha electrons       10 beta electrons
       nuclear repulsion energy        32.9754724441 Hartrees.
 IExCor=    0 DFT=F Ex=HF Corr=None ExCW=0 ScaHFX=  1.000000
 ScaDFX=  1.000000  1.000000  1.000000  1.000000 ScalE2=  1.000000  1.000000
 IRadAn=      5 IRanWt=     -1 IRanGd=            0 ICorTp=0 IEmpDi=  4
 NAtoms=    5 NActive=    5 NUniq=    5 SFac= 1.00D+00 NAtFMM=   60 NAOKFM=F Big=F
 Integral buffers will be    131072 words long.
 Raffenetti 1 integral format.
 Two-electron integral symmetry is turned off.
 Leave Link  301 at Wed Mar 11 15:53:50 2026, MaxMem=  2147483648 cpu:               0.7 elap:               0.1
 (Enter /work1/soft/gaussian/G16A03SSE4/g16/l302.exe)
 NPDir=0 NMtPBC=     1 NCelOv=     1 NCel=       1 NClECP=     1 NCelD=      1
         NCelK=      1 NCelE2=     1 NClLst=     1 CellRange=     0.0.
 One-electron integrals computed using PRISM.
 NBasis=   161 RedAO= T EigKep=  2.64D-04  NBF=   161
 NBsUse=   161 1.00D-06 EigRej= -1.00D+00 NBFU=   161
 Leave Link  302 at Wed Mar 11 15:53:51 2026, MaxMem=  2147483648 cpu:               1.6 elap:               0.1
 (Enter /work1/soft/gaussian/G16A03SSE4/g16/l303.exe)
 DipDrv:  MaxL=1.
 Leave Link  303 at Wed Mar 11 15:53:51 2026, MaxMem=  2147483648 cpu:               0.3 elap:               0.0
 (Enter /work1/soft/gaussian/G16A03SSE4/g16/l401.exe)
 ExpMin= 2.53D-02 ExpMax= 1.95D+04 ExpMxC= 6.65D+02 IAcc=3 IRadAn=         5 AccDes= 0.00D+00
 Harris functional with IExCor=  205 and IRadAn=       5 diagonalized for initial guess.
 HarFok:  IExCor=  205 AccDes= 0.00D+00 IRadAn=         5 IDoV= 1 UseB2=F ITyADJ=14
 ICtDFT=  3500011 ScaDFX=  1.000000  1.000000  1.000000  1.000000
 FoFCou: FMM=F IPFlag=           0 FMFlag=      100000 FMFlg1=           0
         NFxFlg=           0 DoJE=T BraDBF=F KetDBF=T FulRan=T
         wScrn=  0.000000 ICntrl=       500 IOpCl=  0 I1Cent=   200000004 NGrid=           0
         NMat0=    1 NMatS0=      1 NMatT0=    0 NMatD0=    1 NMtDS0=    0 NMtDT0=    0
 Symmetry not used in FoFCou.
 Harris En= -176.214535578296    
 JPrj=0 DoOrth=F DoCkMO=F.
 Leave Link  401 at Wed Mar 11 15:53:51 2026, MaxMem=  2147483648 cpu:               3.2 elap:               0.2
 (Enter /work1/soft/gaussian/G16A03SSE4/g16/l502.exe)
 Keep R1 ints in memory in canonical form, NReq=92927987.
 FoFCou: FMM=F IPFlag=           0 FMFlag=           0 FMFlg1=           0
         NFxFlg=           0 DoJE=F BraDBF=F KetDBF=F FulRan=T
         wScrn=  0.000000 ICntrl=       600 IOpCl=  0 I1Cent=           0 NGrid=           0
         NMat0=    1 NMatS0=  13041 NMatT0=    0 NMatD0=    1 NMtDS0=    0 NMtDT0=    0
 Symmetry not used in FoFCou.
 Two-electron integral symmetry not used.
 Closed shell SCF:
 Using DIIS extrapolation, IDIIS=  1040.
 NGot=  2147483648 LenX=  2062370645 LenY=  2062335979
 Requested convergence on RMS density matrix=1.00D-08 within 128 cycles.
 Requested convergence on MAX density matrix=1.00D-06.
 Requested convergence on             energy=1.00D-06.
 No special actions if energy rises.

 Cycle   1  Pass 1  IDiag  1:
 E= -176.006860613959    
 DIIS: error= 2.44D-02 at cycle   1 NSaved=   1.
 NSaved= 1 IEnMin= 1 EnMin= -176.006860613959     IErMin= 1 ErrMin= 2.44D-02
 ErrMax= 2.44D-02  0.00D+00 EMaxC= 1.00D-01 BMatC= 3.21D-01 BMatP= 3.21D-01
 IDIUse=3 WtCom= 7.56D-01 WtEn= 2.44D-01
 Coeff-Com:  0.100D+01
 Coeff-En:   0.100D+01
 Coeff:      0.100D+01
 Gap=     0.450 Goal=   None    Shift=    0.000
 GapD=    0.450 DampG=2.000 DampE=0.500 DampFc=1.0000 IDamp=-1.
 RMSDP=1.40D-03 MaxDP=4.73D-02              OVMax= 1.19D-01

 Cycle   2  Pass 1  IDiag  1:
 E= -176.078575366865     Delta-E=       -0.071714752907 Rises=F Damp=F
 DIIS: error= 1.58D-02 at cycle   2 NSaved=   2.
 NSaved= 2 IEnMin= 2 EnMin= -176.078575366865     IErMin= 2 ErrMin= 1.58D-02
 ErrMax= 1.58D-02  0.00D+00 EMaxC= 1.00D-01 BMatC= 7.15D-02 BMatP= 3.21D-01
 IDIUse=3 WtCom= 8.42D-01 WtEn= 1.58D-01
 Coeff-Com:  0.277D+00 0.723D+00
 Coeff-En:   0.142D+00 0.858D+00
 Coeff:      0.256D+00 0.744D+00
 Gap=     0.566 Goal=   None    Shift=    0.000
 RMSDP=8.48D-04 MaxDP=3.57D-02 DE=-7.17D-02 OVMax= 6.57D-02

 Cycle   3  Pass 1  IDiag  1:
 E= -176.118372981560     Delta-E=       -0.039797614695 Rises=F Damp=F
 DIIS: error= 3.87D-03 at cycle   3 NSaved=   3.
 NSaved= 3 IEnMin= 3 EnMin= -176.118372981560     IErMin= 3 ErrMin= 3.87D-03
 ErrMax= 3.87D-03  0.00D+00 EMaxC= 1.00D-01 BMatC= 4.41D-03 BMatP= 7.15D-02
 IDIUse=3 WtCom= 9.61D-01 WtEn= 3.87D-02
 Coeff-Com: -0.281D-01 0.170D+00 0.858D+00
 Coeff-En:   0.000D+00 0.000D+00 0.100D+01
 Coeff:     -0.270D-01 0.164D+00 0.863D+00
 Gap=     0.533 Goal=   None    Shift=    0.000
 RMSDP=1.60D-04 MaxDP=4.89D-03 DE=-3.98D-02 OVMax= 1.27D-02

 Cycle   4  Pass 1  IDiag  1:
 E= -176.121014036787     Delta-E=       -0.002641055226 Rises=F Damp=F
 DIIS: error= 3.58D-04 at cycle   4 NSaved=   4.
 NSaved= 4 IEnMin= 4 EnMin= -176.121014036787     IErMin= 4 ErrMin= 3.58D-04
 ErrMax= 3.58D-04  0.00D+00 EMaxC= 1.00D-01 BMatC= 2.12D-05 BMatP= 4.41D-03
 IDIUse=3 WtCom= 9.96D-01 WtEn= 3.58D-03
 Coeff-Com:  0.168D-02-0.271D-01-0.105D+00 0.113D+01
 Coeff-En:   0.000D+00 0.000D+00 0.000D+00 0.100D+01
 Coeff:      0.167D-02-0.270D-01-0.105D+00 0.113D+01
 Gap=     0.535 Goal=   None    Shift=    0.000
 RMSDP=2.97D-05 MaxDP=9.42D-04 DE=-2.64D-03 OVMax= 2.36D-03

 Cycle   5  Pass 1  IDiag  1:
 E= -176.121049884403     Delta-E=       -0.000035847617 Rises=F Damp=F
 DIIS: error= 1.27D-04 at cycle   5 NSaved=   5.
 NSaved= 5 IEnMin= 5 EnMin= -176.121049884403     IErMin= 5 ErrMin= 1.27D-04
 ErrMax= 1.27D-04  0.00D+00 EMaxC= 1.00D-01 BMatC= 5.13D-06 BMatP= 2.12D-05
 IDIUse=3 WtCom= 9.99D-01 WtEn= 1.27D-03
 Coeff-Com:  0.360D-02-0.272D-01-0.124D+00 0.296D+00 0.851D+00
 Coeff-En:   0.000D+00 0.000D+00 0.000D+00 0.000D+00 0.100D+01
 Coeff:      0.359D-02-0.271D-01-0.124D+00 0.296D+00 0.851D+00
 Gap=     0.534 Goal=   None    Shift=    0.000
 RMSDP=1.05D-05 MaxDP=3.54D-04 DE=-3.58D-05 OVMax= 8.02D-04

 Cycle   6  Pass 1  IDiag  1:
 E= -176.121055909527     Delta-E=       -0.000006025123 Rises=F Damp=F
 DIIS: error= 5.46D-05 at cycle   6 NSaved=   6.
 NSaved= 6 IEnMin= 6 EnMin= -176.121055909527     IErMin= 6 ErrMin= 5.46D-05
 ErrMax= 5.46D-05  0.00D+00 EMaxC= 1.00D-01 BMatC= 3.54D-07 BMatP= 5.13D-06
 IDIUse=1 WtCom= 1.00D+00 WtEn= 0.00D+00
 Coeff-Com: -0.838D-04 0.220D-02 0.118D-01-0.133D+00-0.784D-02 0.113D+01
 Coeff:     -0.838D-04 0.220D-02 0.118D-01-0.133D+00-0.784D-02 0.113D+01
 Gap=     0.535 Goal=   None    Shift=    0.000
 RMSDP=4.71D-06 MaxDP=1.54D-04 DE=-6.03D-06 OVMax= 3.71D-04

 Cycle   7  Pass 1  IDiag  1:
 E= -176.121056598249     Delta-E=       -0.000000688722 Rises=F Damp=F
 DIIS: error= 6.58D-06 at cycle   7 NSaved=   7.
 NSaved= 7 IEnMin= 7 EnMin= -176.121056598249     IErMin= 7 ErrMin= 6.58D-06
 ErrMax= 6.58D-06  0.00D+00 EMaxC= 1.00D-01 BMatC= 9.55D-09 BMatP= 3.54D-07
 IDIUse=1 WtCom= 1.00D+00 WtEn= 0.00D+00
 Coeff-Com: -0.128D-03 0.794D-03 0.300D-02 0.784D-02-0.436D-01-0.168D+00
 Coeff-Com:  0.120D+01
 Coeff:     -0.128D-03 0.794D-03 0.300D-02 0.784D-02-0.436D-01-0.168D+00
 Coeff:      0.120D+01
 Gap=     0.535 Goal=   None    Shift=    0.000
 RMSDP=9.29D-07 MaxDP=2.62D-05 DE=-6.89D-07 OVMax= 6.95D-05

 Cycle   8  Pass 1  IDiag  1:
 E= -176.121056620561     Delta-E=       -0.000000022312 Rises=F Damp=F
 DIIS: error= 1.84D-06 at cycle   8 NSaved=   8.
 NSaved= 8 IEnMin= 8 EnMin= -176.121056620561     IErMin= 8 ErrMin= 1.84D-06
 ErrMax= 1.84D-06  0.00D+00 EMaxC= 1.00D-01 BMatC= 3.66D-10 BMatP= 9.55D-09
 IDIUse=1 WtCom= 1.00D+00 WtEn= 0.00D+00
 Coeff-Com:  0.258D-04-0.224D-03-0.110D-02 0.464D-02 0.776D-02-0.159D-01
 Coeff-Com: -0.186D+00 0.119D+01
 Coeff:      0.258D-04-0.224D-03-0.110D-02 0.464D-02 0.776D-02-0.159D-01
 Coeff:     -0.186D+00 0.119D+01
 Gap=     0.535 Goal=   None    Shift=    0.000
 RMSDP=1.27D-07 MaxDP=2.99D-06 DE=-2.23D-08 OVMax= 1.48D-05

 Cycle   9  Pass 1  IDiag  1:
 E= -176.121056621318     Delta-E=       -0.000000000757 Rises=F Damp=F
 DIIS: error= 3.94D-07 at cycle   9 NSaved=   9.
 NSaved= 9 IEnMin= 9 EnMin= -176.121056621318     IErMin= 9 ErrMin= 3.94D-07
 ErrMax= 3.94D-07  0.00D+00 EMaxC= 1.00D-01 BMatC= 2.12D-11 BMatP= 3.66D-10
 IDIUse=1 WtCom= 1.00D+00 WtEn= 0.00D+00
 Coeff-Com:  0.504D-07 0.159D-04 0.157D-03-0.180D-02 0.297D-03 0.135D-01
 Coeff-Com: -0.129D-01-0.337D+00 0.134D+01
 Coeff:      0.504D-07 0.159D-04 0.157D-03-0.180D-02 0.297D-03 0.135D-01
 Coeff:     -0.129D-01-0.337D+00 0.134D+01
 Gap=     0.535 Goal=   None    Shift=    0.000
 RMSDP=4.02D-08 MaxDP=9.67D-07 DE=-7.57D-10 OVMax= 4.00D-06

 Cycle  10  Pass 1  IDiag  1:
 E= -176.121056621374     Delta-E=       -0.000000000056 Rises=F Damp=F
 DIIS: error= 7.00D-08 at cycle  10 NSaved=  10.
 NSaved=10 IEnMin=10 EnMin= -176.121056621374     IErMin=10 ErrMin= 7.00D-08
 ErrMax= 7.00D-08  0.00D+00 EMaxC= 1.00D-01 BMatC= 5.38D-13 BMatP= 2.12D-11
 IDIUse=1 WtCom= 1.00D+00 WtEn= 0.00D+00
 Coeff-Com: -0.537D-06 0.128D-05-0.178D-04 0.324D-03-0.211D-03-0.265D-02
 Coeff-Com:  0.563D-02 0.654D-01-0.374D+00 0.131D+01
 Coeff:     -0.537D-06 0.128D-05-0.178D-04 0.324D-03-0.211D-03-0.265D-02
 Coeff:      0.563D-02 0.654D-01-0.374D+00 0.131D+01
 Gap=     0.535 Goal=   None    Shift=    0.000
 RMSDP=7.89D-09 MaxDP=2.07D-07 DE=-5.59D-11 OVMax= 6.60D-07

 SCF Done:  E(RHF) =  -176.121056621     A.U. after   10 cycles
            NFock= 10  Conv=0.79D-08     -V/T= 2.0017
 KE= 1.758260879697D+02 PE=-4.865776155992D+02 EE= 1.016549985640D+02
 Leave Link  502 at Wed Mar 11 15:53:53 2026, MaxMem=  2147483648 cpu:              17.9 elap:               2.0
 (Enter /work1/soft/gaussian/G16A03SSE4/g16/l801.exe)
 ExpMin= 2.53D-02 ExpMax= 1.95D+04 ExpMxC= 6.65D+02 IAcc=3 IRadAn=         5 AccDes= 0.00D+00
 HarFok:  IExCor=  205 AccDes= 0.00D+00 IRadAn=         5 IDoV=-2 UseB2=F ITyADJ=14
 ICtDFT= 12500011 ScaDFX=  1.000000  1.000000  1.000000  1.000000
 Largest valence mixing into a core orbital is  1.11D-04
 Largest core mixing into a valence orbital is  1.74D-05
 Range of M.O.s used for correlation:     3   161
 NBasis=   161 NAE=    10 NBE=    10 NFC=     2 NFV=     0
 NROrb=    159 NOA=     8 NOB=     8 NVA=   151 NVB=   151

 **** Warning!!: The largest alpha MO coefficient is  0.16020868D+02

 Leave Link  801 at Wed Mar 11 15:53:53 2026, MaxMem=  2147483648 cpu:               0.9 elap:               0.1
 (Enter /work1/soft/gaussian/G16A03SSE4/g16/l906.exe)
 FulOut=F Deriv=F AODrv=F NAtomX=     5
   MMem=         515  MDisk=           8 MDiskD=           8
  W3Min=      223480 MinDsk=      523413 NBas6D=         185
 NBas2D=       17616    NTT=       17205    LW2=     2000000
    MDV=  2147341763 MDiskM=       57982 NBas2p=       17445
 Fully in-core method, ICMem=   317592186.
 IMap=   1   2   3   4   5   6   7   8
 JobTyp=1 Pass  1 fully in-core, NPsUse= 16.
 Compute canonical integrals.
 FoFCou: FMM=F IPFlag=           0 FMFlag=           0 FMFlg1=           0
         NFxFlg=           0 DoJE=F BraDBF=F KetDBF=F FulRan=T
         wScrn=  0.000000 ICntrl=       600 IOpCl=  1 I1Cent=           0 NGrid=           0
         NMat0=    1 NMatS0=  17616 NMatT0=    0 NMatD0=    1 NMtDS0=    0 NMtDT0=    0
 Symmetry not used in FoFCou.
 Spin components of T(2) and E(2):
     alpha-alpha T2 =       0.1540765117D-01 E2=     -0.6899898578D-01
     alpha-beta  T2 =       0.8677785072D-01 E2=     -0.4148532863D+00
     beta-beta   T2 =       0.1540765117D-01 E2=     -0.6899898578D-01
 The integrals were generated   1 times.
 ANorm=    0.1057162785D+01
 E2 =    -0.5528512578D+00 EUMP2 =    -0.17667390787921D+03
 Leave Link  906 at Wed Mar 11 15:53:55 2026, MaxMem=  2147483648 cpu:              31.7 elap:               2.0
 (Enter /work1/soft/gaussian/G16A03SSE4/g16/l601.exe)
 Copying SCF densities to generalized density rwf, IOpCl= 0 IROHF=0.

 **********************************************************************

            Population analysis using the SCF density.

 **********************************************************************

 Alpha  occ. eigenvalues --  -26.31394 -20.56408  -1.60582  -1.34447  -0.76888
 Alpha  occ. eigenvalues --   -0.71898  -0.66219  -0.65705  -0.57881  -0.50654
 Alpha virt. eigenvalues --    0.02834   0.04403   0.06517   0.13578   0.14144
 Alpha virt. eigenvalues --    0.16541   0.17374   0.19766   0.20603   0.22300
 Alpha virt. eigenvalues --    0.24767   0.25964   0.27538   0.28460   0.31584
 Alpha virt. eigenvalues --    0.32114   0.33925   0.39653   0.40654   0.43376
 Alpha virt. eigenvalues --    0.44631   0.46861   0.55121   0.60181   0.68938
 Alpha virt. eigenvalues --    0.70041   0.71659   0.71996   0.74278   0.78574
 Alpha virt. eigenvalues --    0.81511   0.83163   0.85718   0.89548   0.91442
 Alpha virt. eigenvalues --    0.92857   0.94102   0.95839   0.96946   0.99490
 Alpha virt. eigenvalues --    1.01875   1.02895   1.05345   1.07955   1.09959
 Alpha virt. eigenvalues --    1.11600   1.12541   1.14052   1.14882   1.17163
 Alpha virt. eigenvalues --    1.20608   1.25101   1.28886   1.35619   1.38424
 Alpha virt. eigenvalues --    1.42399   1.54787   1.61476   1.62305   1.68189
 Alpha virt. eigenvalues --    1.68930   1.79319   1.87039   1.92311   1.94273
 Alpha virt. eigenvalues --    2.06341   2.21840   2.29448   2.35503   2.38055
 Alpha virt. eigenvalues --    2.43235   2.45431   2.46679   2.52115   2.60035
 Alpha virt. eigenvalues --    2.71668   2.73686   2.78653   2.81325   2.87740
 Alpha virt. eigenvalues --    2.88230   2.89831   2.90137   3.00144   3.04333
 Alpha virt. eigenvalues --    3.12251   3.14720   3.16772   3.26582   3.37171
 Alpha virt. eigenvalues --    3.59962   3.62232   3.75043   3.88345   4.03604
 Alpha virt. eigenvalues --    4.07802   4.14096   4.15331   4.20292   4.22690
 Alpha virt. eigenvalues --    4.27359   4.27864   4.30439   4.40266   4.42112
 Alpha virt. eigenvalues --    4.44586   4.57026   4.62209   4.76876   4.81319
 Alpha virt. eigenvalues --    4.90239   4.94527   5.11370   5.15165   5.16687
 Alpha virt. eigenvalues --    5.29411   5.35044   5.49895   5.58914   5.70027
 Alpha virt. eigenvalues --    5.93282   6.06672   6.25398   6.54848   6.77132
 Alpha virt. eigenvalues --    6.91470   7.14366   7.27798   7.31022   7.32619
 Alpha virt. eigenvalues --    7.34601   7.42676   7.58930   7.61080   7.92824
 Alpha virt. eigenvalues --    7.94614   8.76924   8.92006   8.93704   8.97025
 Alpha virt. eigenvalues --    8.99348   9.19608   9.23259   9.42352   9.44460
 Alpha virt. eigenvalues --    9.53853   9.55263   9.62204   9.82635  14.44317
 Alpha virt. eigenvalues --   15.75849
          Condensed to atoms (all electrons):
               1          2          3          4          5
     1  O    7.968896   0.248302   0.277996  -0.004900   0.005749
     2  H    0.248302   0.458856   0.034178  -0.033537  -0.004523
     3  H    0.277996   0.034178   0.472864  -0.001385  -0.001309
     4  F   -0.004900  -0.033537  -0.001385   9.296892   0.182205
     5  H    0.005749  -0.004523  -0.001309   0.182205   0.396938
 Mulliken charges:
               1
     1  O   -0.496044
     2  H    0.296724
     3  H    0.217655
     4  F   -0.439276
     5  H    0.420941
 Sum of Mulliken charges =  -0.00000
 Mulliken charges with hydrogens summed into heavy atoms:
               1
     1  O    0.018335
     4  F   -0.018335
 Electronic spatial extent (au):  <R**2>=            216.6360
 Charge=             -0.0000 electrons
 Dipole moment (field-independent basis, Debye):
    X=             -0.1510    Y=              0.2613    Z=             -1.1856  Tot=              1.2234
 Quadrupole moment (field-independent basis, Debye-Ang):
   XX=             -8.9889   YY=            -14.3621   ZZ=            -12.5459
   XY=             -3.4896   XZ=             -2.8503   YZ=              0.0437
 Traceless Quadrupole moment (field-independent basis, Debye-Ang):
   XX=              2.9767   YY=             -2.3964   ZZ=             -0.5803
   XY=             -3.4896   XZ=             -2.8503   YZ=              0.0437
 Octapole moment (field-independent basis, Debye-Ang**2):
  XXX=             -8.9269  YYY=             23.2663  ZZZ=             -1.5709  XYY=             -3.0035
  XXY=              6.6531  XXZ=             -7.7885  XZZ=             -5.9390  YZZ=              7.1825
  YYZ=             -0.3118  XYZ=              0.1659
 Hexadecapole moment (field-independent basis, Debye-Ang**3):
 XXXX=           -111.6103 YYYY=            -67.2323 ZZZZ=            -10.9452 XXXY=            -21.9363
 XXXZ=            -19.0387 YYYX=            -22.3761 YYYZ=             -0.1220 ZZZX=             -2.5014
 ZZZY=              0.0593 XXYY=            -37.6369 XXZZ=            -25.2463 YYZZ=            -13.0098
 XXYZ=              0.5590 YYXZ=             -0.5385 ZZXY=             -6.4096
 N-N= 3.297547244414D+01 E-N=-4.865776143890D+02  KE= 1.758260879697D+02
 Leave Link  601 at Wed Mar 11 15:53:55 2026, MaxMem=  2147483648 cpu:               0.3 elap:               0.0
 (Enter /work1/soft/gaussian/G16A03SSE4/g16/l9999.exe)
 1\1\GINC-XENA09\SP\RMP2-FC\Aug-CC-pVTZ\F1H3O1\DEEPAK\11-Mar-2026\0\\#P
  MP2/aug-cc-pVTZ SP nosymm scf=tight\\HB3 primary frag (acceptor side)
  | removed donor M3=F7-H8\\0,1\O,0,1.636242,0.060448,0.103696\H,0,1.10
 8561,-0.755119,0.053012\H,0,2.377032,-0.081664,-0.498399\F,0,-0.867229
 ,-1.330843,0.007003\H,0,-1.042224,-0.390985,-0.036243\\Version=ES64L-G
 16RevA.03\HF=-176.1210566\MP2=-176.6739079\RMSD=7.893e-09\PG=C01 [X(F1
 H3O1)]\\@


 What some people mistake for the high cost
 of living is really the cost of living high.
                              -- Doug Larson
 Job cpu time:       0 days  0 hours  0 minutes 58.5 seconds.
 Elapsed time:       0 days  0 hours  0 minutes  4.8 seconds.
 File lengths (MBytes):  RWF=     28 Int=      0 D2E=      0 Chk=      4 Scr=      2
 Normal termination of Gaussian 16 at Wed Mar 11 15:53:55 2026.
